
Host: Kevins-MacBook-Air-2.local

Timers On : Wed Jul 26 19:01:58 2017
Timers Off: Wed Jul 26 19:01:59 2017

Wall Time:        1.59 seconds


-----------------------------------------------------------

***********************************************************

Host: Kevins-MacBook-Air-2.local

Timers On : Wed Jul 26 19:02:42 2017
Timers Off: Wed Jul 26 19:02:43 2017

Wall Time:        0.21 seconds


-----------------------------------------------------------

***********************************************************

Host: Kevins-MacBook-Air-2.local

Timers On : Wed Jul 26 19:03:17 2017
Timers Off: Wed Jul 26 19:03:18 2017

Wall Time:        0.42 seconds


-----------------------------------------------------------

***********************************************************

Host: Kevins-MacBook-Air-2.local

Timers On : Wed Jul 26 19:04:11 2017
Timers Off: Wed Jul 26 19:04:12 2017

Wall Time:        0.78 seconds


-----------------------------------------------------------

***********************************************************

Host: Kevins-MacBook-Air-2.local

Timers On : Wed Jul 26 19:29:14 2017
Timers Off: Wed Jul 26 19:29:16 2017

Wall Time:        1.60 seconds


-----------------------------------------------------------

***********************************************************

Host: Kevins-MacBook-Air-2.local

Timers On : Wed Jul 26 19:29:41 2017
Timers Off: Wed Jul 26 19:29:42 2017

Wall Time:        0.92 seconds


-----------------------------------------------------------

***********************************************************

Host: Kevins-MacBook-Air-2.local

Timers On : Wed Jul 26 19:30:47 2017
Timers Off: Wed Jul 26 19:30:48 2017

Wall Time:        0.84 seconds


-----------------------------------------------------------

***********************************************************

Host: Kevins-MacBook-Air-2.local

Timers On : Wed Jul 26 19:31:06 2017
Timers Off: Wed Jul 26 19:31:07 2017

Wall Time:        1.11 seconds


-----------------------------------------------------------

***********************************************************

Host: Kevins-MacBook-Air-2.local

Timers On : Wed Jul 26 19:31:38 2017
Timers Off: Wed Jul 26 19:31:39 2017

Wall Time:        0.35 seconds


-----------------------------------------------------------

***********************************************************

Host: Kevins-MacBook-Air-2.local

Timers On : Wed Jul 26 19:31:46 2017
Timers Off: Wed Jul 26 19:31:47 2017

Wall Time:        0.35 seconds


-----------------------------------------------------------

***********************************************************

Host: Kevins-MacBook-Air-2.local

Timers On : Wed Jul 26 19:35:15 2017
Timers Off: Wed Jul 26 19:35:17 2017

Wall Time:        1.57 seconds


-----------------------------------------------------------

***********************************************************

Host: Kevins-MacBook-Air-2.local

Timers On : Wed Jul 26 19:37:08 2017
Timers Off: Wed Jul 26 19:37:09 2017

Wall Time:        0.86 seconds


-----------------------------------------------------------

***********************************************************

Host: Kevins-MacBook-Air-2.local

Timers On : Wed Jul 26 19:38:09 2017
Timers Off: Wed Jul 26 19:38:10 2017

Wall Time:        1.21 seconds


-----------------------------------------------------------

***********************************************************

Host: Kevins-MacBook-Air-2.local

Timers On : Wed Jul 26 19:39:26 2017
Timers Off: Wed Jul 26 19:39:28 2017

Wall Time:        1.52 seconds


-----------------------------------------------------------

***********************************************************

Host: Kevins-MacBook-Air-2.local

Timers On : Wed Jul 26 19:41:02 2017
Timers Off: Wed Jul 26 19:41:03 2017

Wall Time:        0.94 seconds


-----------------------------------------------------------

***********************************************************

Host: Kevins-MacBook-Air-2.local

Timers On : Wed Jul 26 19:41:58 2017
Timers Off: Wed Jul 26 19:41:58 2017

Wall Time:        0.83 seconds


-----------------------------------------------------------

***********************************************************

Host: Kevins-MacBook-Air-2.local

Timers On : Wed Jul 26 19:43:41 2017
Timers Off: Wed Jul 26 19:43:42 2017

Wall Time:        1.57 seconds


-----------------------------------------------------------

***********************************************************

Host: Kevins-MacBook-Air-2.local

Timers On : Wed Jul 26 19:45:35 2017
Timers Off: Wed Jul 26 19:45:37 2017

Wall Time:        2.06 seconds

Total PK formation time     :      0.117u      0.017s      0.100w      1 calls
HF: Form H                  :      0.000u      0.000s      0.003w      1 calls
HF: Form S/X                :      0.000u      0.000s      0.005w      1 calls
HF: Guess                   :      0.150u      0.017s      0.144w      1 calls
SAD Guess                   :      0.133u      0.017s      0.139w      1 calls
HF: Form G                  :      0.033u      0.000s      0.028w      9 calls
JK: D                       :      0.000u      0.000s      0.000w      9 calls
JK: USO2AO                  :      0.000u      0.000s      0.005w      9 calls
JK: JK                      :      0.017u      0.000s      0.020w      9 calls
PK computes JK              :      0.017u      0.000s      0.020w      9 calls
JK: AO2USO                  :      0.000u      0.000s      0.000w      9 calls
HF: Form F                  :      0.000u      0.000s      0.000w      9 calls
HF: DIIS                    :      0.017u      0.000s      0.002w      9 calls
DIISManager::add_entry      :      0.017u      0.000s      0.001w      8 calls
DIISManager::extrapolate    :      0.000u      0.000s      0.001w      7 calls
DIISManager::extrapolate: bMatrix setup:      0.000u      0.000s      0.000w      7 calls
DIISManager::extrapolate: bMatrix pseudoinverse:      0.000u      0.000s      0.000w      7 calls
DIISManager::extrapolate: form new data:      0.000u      0.000s      0.000w      7 calls
HF: Form C                  :      0.000u      0.000s      0.001w      9 calls
HF: Form D                  :      0.000u      0.000s      0.000w      9 calls

-----------------------------------------------------------
Total PK formation time     :      0.117u      0.017s      0.100w      1 calls
HF: Form H                  :      0.000u      0.000s      0.003w      1 calls
HF: Form S/X                :      0.000u      0.000s      0.005w      1 calls
HF: Guess                   :      0.150u      0.017s      0.144w      1 calls
| SAD Guess                 :      0.133u      0.017s      0.139w      1 calls
HF: Form G                  :      0.033u      0.000s      0.028w      9 calls
| JK: D                     :      0.000u      0.000s      0.000w      9 calls
| JK: USO2AO                :      0.000u      0.000s      0.005w      9 calls
| JK: JK                    :      0.017u      0.000s      0.020w      9 calls
| | PK computes JK          :      0.017u      0.000s      0.020w      9 calls
| JK: AO2USO                :      0.000u      0.000s      0.000w      9 calls
HF: Form F                  :      0.000u      0.000s      0.000w      9 calls
HF: DIIS                    :      0.017u      0.000s      0.002w      9 calls
| DIISManager::add_entry    :      0.017u      0.000s      0.001w      8 calls
| DIISManager::extrapolate  :      0.000u      0.000s      0.001w      7 calls
| | DIISManager::extrapolate: bMatrix setup:      0.000u      0.000s      0.000w      7 calls
| | DIISManager::extrapolate: bMatrix pseudoinverse:      0.000u      0.000s      0.000w      7 calls
| | DIISManager::extrapolate: form new data:      0.000u      0.000s      0.000w      7 calls
HF: Form C                  :      0.000u      0.000s      0.001w      9 calls
HF: Form D                  :      0.000u      0.000s      0.000w      9 calls

***********************************************************

Host: Kevins-MacBook-Air-2.local

Timers On : Wed Jul 26 19:46:01 2017
Timers Off: Wed Jul 26 19:46:03 2017

Wall Time:        1.82 seconds

Total PK formation time     :      0.100u      0.000s      0.066w      1 calls
HF: Form H                  :      0.000u      0.000s      0.004w      1 calls
HF: Form S/X                :      0.017u      0.000s      0.005w      1 calls
HF: Guess                   :      0.133u      0.017s      0.103w      1 calls
SAD Guess                   :      0.133u      0.017s      0.098w      1 calls
HF: Form G                  :      0.033u      0.000s      0.022w      9 calls
JK: D                       :      0.000u      0.000s      0.000w      9 calls
JK: USO2AO                  :      0.000u      0.000s      0.004w      9 calls
JK: JK                      :      0.033u      0.000s      0.016w      9 calls
PK computes JK              :      0.033u      0.000s      0.016w      9 calls
JK: AO2USO                  :      0.000u      0.000s      0.000w      9 calls
HF: Form F                  :      0.000u      0.000s      0.000w      9 calls
HF: DIIS                    :      0.000u      0.000s      0.002w      9 calls
DIISManager::add_entry      :      0.000u      0.000s      0.001w      8 calls
DIISManager::extrapolate    :      0.000u      0.000s      0.001w      7 calls
DIISManager::extrapolate: bMatrix setup:      0.000u      0.000s      0.000w      7 calls
DIISManager::extrapolate: bMatrix pseudoinverse:      0.000u      0.000s      0.000w      7 calls
DIISManager::extrapolate: form new data:      0.000u      0.000s      0.000w      7 calls
HF: Form C                  :      0.000u      0.000s      0.001w      9 calls
HF: Form D                  :      0.000u      0.000s      0.000w      9 calls

-----------------------------------------------------------
Total PK formation time     :      0.100u      0.000s      0.066w      1 calls
HF: Form H                  :      0.000u      0.000s      0.004w      1 calls
HF: Form S/X                :      0.017u      0.000s      0.005w      1 calls
HF: Guess                   :      0.133u      0.017s      0.103w      1 calls
| SAD Guess                 :      0.133u      0.017s      0.098w      1 calls
HF: Form G                  :      0.033u      0.000s      0.022w      9 calls
| JK: D                     :      0.000u      0.000s      0.000w      9 calls
| JK: USO2AO                :      0.000u      0.000s      0.004w      9 calls
| JK: JK                    :      0.033u      0.000s      0.016w      9 calls
| | PK computes JK          :      0.033u      0.000s      0.016w      9 calls
| JK: AO2USO                :      0.000u      0.000s      0.000w      9 calls
HF: Form F                  :      0.000u      0.000s      0.000w      9 calls
HF: DIIS                    :      0.000u      0.000s      0.002w      9 calls
| DIISManager::add_entry    :      0.000u      0.000s      0.001w      8 calls
| DIISManager::extrapolate  :      0.000u      0.000s      0.001w      7 calls
| | DIISManager::extrapolate: bMatrix setup:      0.000u      0.000s      0.000w      7 calls
| | DIISManager::extrapolate: bMatrix pseudoinverse:      0.000u      0.000s      0.000w      7 calls
| | DIISManager::extrapolate: form new data:      0.000u      0.000s      0.000w      7 calls
HF: Form C                  :      0.000u      0.000s      0.001w      9 calls
HF: Form D                  :      0.000u      0.000s      0.000w      9 calls

***********************************************************

Host: Kevins-MacBook-Air-2.local

Timers On : Wed Jul 26 19:46:25 2017
Timers Off: Wed Jul 26 19:46:26 2017

Wall Time:        0.73 seconds

Total PK formation time     :      0.017u      0.000s      0.011w      1 calls
HF: Form H                  :      0.000u      0.017s      0.003w      1 calls
HF: Form S/X                :      0.000u      0.000s      0.000w      1 calls
HF: Guess                   :      0.100u      0.000s      0.057w      1 calls
SAD Guess                   :      0.083u      0.000s      0.054w      1 calls
HF: Form G                  :      0.000u      0.000s      0.003w      8 calls
JK: D                       :      0.000u      0.000s      0.000w      8 calls
JK: USO2AO                  :      0.000u      0.000s      0.002w      8 calls
JK: JK                      :      0.000u      0.000s      0.000w      8 calls
PK computes JK              :      0.000u      0.000s      0.000w      8 calls
JK: AO2USO                  :      0.000u      0.000s      0.000w      8 calls
HF: Form F                  :      0.000u      0.000s      0.000w      8 calls
HF: DIIS                    :      0.000u      0.000s      0.002w      8 calls
DIISManager::add_entry      :      0.000u      0.000s      0.001w      7 calls
DIISManager::extrapolate    :      0.000u      0.000s      0.001w      6 calls
DIISManager::extrapolate: bMatrix setup:      0.000u      0.000s      0.000w      6 calls
DIISManager::extrapolate: bMatrix pseudoinverse:      0.000u      0.000s      0.000w      6 calls
DIISManager::extrapolate: form new data:      0.000u      0.000s      0.000w      6 calls
HF: Form C                  :      0.000u      0.000s      0.000w      8 calls
HF: Form D                  :      0.000u      0.000s      0.000w      8 calls

-----------------------------------------------------------
Total PK formation time     :      0.017u      0.000s      0.011w      1 calls
HF: Form H                  :      0.000u      0.017s      0.003w      1 calls
HF: Form S/X                :      0.000u      0.000s      0.000w      1 calls
HF: Guess                   :      0.100u      0.000s      0.057w      1 calls
| SAD Guess                 :      0.083u      0.000s      0.054w      1 calls
HF: Form G                  :      0.000u      0.000s      0.003w      8 calls
| JK: D                     :      0.000u      0.000s      0.000w      8 calls
| JK: USO2AO                :      0.000u      0.000s      0.002w      8 calls
| JK: JK                    :      0.000u      0.000s      0.000w      8 calls
| | PK computes JK          :      0.000u      0.000s      0.000w      8 calls
| JK: AO2USO                :      0.000u      0.000s      0.000w      8 calls
HF: Form F                  :      0.000u      0.000s      0.000w      8 calls
HF: DIIS                    :      0.000u      0.000s      0.002w      8 calls
| DIISManager::add_entry    :      0.000u      0.000s      0.001w      7 calls
| DIISManager::extrapolate  :      0.000u      0.000s      0.001w      6 calls
| | DIISManager::extrapolate: bMatrix setup:      0.000u      0.000s      0.000w      6 calls
| | DIISManager::extrapolate: bMatrix pseudoinverse:      0.000u      0.000s      0.000w      6 calls
| | DIISManager::extrapolate: form new data:      0.000u      0.000s      0.000w      6 calls
HF: Form C                  :      0.000u      0.000s      0.000w      8 calls
HF: Form D                  :      0.000u      0.000s      0.000w      8 calls

***********************************************************

Host: Kevins-MacBook-Air-2.local

Timers On : Wed Jul 26 19:46:51 2017
Timers Off: Wed Jul 26 19:46:51 2017

Wall Time:        0.87 seconds

Total PK formation time     :      0.017u      0.000s      0.011w      1 calls
HF: Form H                  :      0.000u      0.000s      0.003w      1 calls
HF: Form S/X                :      0.000u      0.000s      0.000w      1 calls
HF: Guess                   :      0.100u      0.017s      0.053w      1 calls
SAD Guess                   :      0.083u      0.017s      0.051w      1 calls
HF: Form G                  :      0.000u      0.000s      0.000w      8 calls
JK: D                       :      0.000u      0.000s      0.000w      8 calls
JK: USO2AO                  :      0.000u      0.000s      0.000w      8 calls
JK: JK                      :      0.000u      0.000s      0.000w      8 calls
PK computes JK              :      0.000u      0.000s      0.000w      8 calls
JK: AO2USO                  :      0.000u      0.000s      0.000w      8 calls
HF: Form F                  :      0.000u      0.000s      0.000w      8 calls
HF: DIIS                    :      0.000u      0.000s      0.001w      8 calls
DIISManager::add_entry      :      0.000u      0.000s      0.000w      7 calls
DIISManager::extrapolate    :      0.000u      0.000s      0.000w      6 calls
DIISManager::extrapolate: bMatrix setup:      0.000u      0.000s      0.000w      6 calls
DIISManager::extrapolate: bMatrix pseudoinverse:      0.000u      0.000s      0.000w      6 calls
DIISManager::extrapolate: form new data:      0.000u      0.000s      0.000w      6 calls
HF: Form C                  :      0.000u      0.000s      0.000w      8 calls
HF: Form D                  :      0.000u      0.000s      0.000w      8 calls

-----------------------------------------------------------
Total PK formation time     :      0.017u      0.000s      0.011w      1 calls
HF: Form H                  :      0.000u      0.000s      0.003w      1 calls
HF: Form S/X                :      0.000u      0.000s      0.000w      1 calls
HF: Guess                   :      0.100u      0.017s      0.053w      1 calls
| SAD Guess                 :      0.083u      0.017s      0.051w      1 calls
HF: Form G                  :      0.000u      0.000s      0.000w      8 calls
| JK: D                     :      0.000u      0.000s      0.000w      8 calls
| JK: USO2AO                :      0.000u      0.000s      0.000w      8 calls
| JK: JK                    :      0.000u      0.000s      0.000w      8 calls
| | PK computes JK          :      0.000u      0.000s      0.000w      8 calls
| JK: AO2USO                :      0.000u      0.000s      0.000w      8 calls
HF: Form F                  :      0.000u      0.000s      0.000w      8 calls
HF: DIIS                    :      0.000u      0.000s      0.001w      8 calls
| DIISManager::add_entry    :      0.000u      0.000s      0.000w      7 calls
| DIISManager::extrapolate  :      0.000u      0.000s      0.000w      6 calls
| | DIISManager::extrapolate: bMatrix setup:      0.000u      0.000s      0.000w      6 calls
| | DIISManager::extrapolate: bMatrix pseudoinverse:      0.000u      0.000s      0.000w      6 calls
| | DIISManager::extrapolate: form new data:      0.000u      0.000s      0.000w      6 calls
HF: Form C                  :      0.000u      0.000s      0.000w      8 calls
HF: Form D                  :      0.000u      0.000s      0.000w      8 calls

***********************************************************

Host: Kevins-MacBook-Air-2.local

Timers On : Wed Jul 26 19:48:02 2017
Timers Off: Wed Jul 26 19:48:03 2017

Wall Time:        1.27 seconds


-----------------------------------------------------------

***********************************************************

Host: Kevins-MacBook-Air-2.local

Timers On : Wed Jul 26 19:48:23 2017
Timers Off: Wed Jul 26 19:48:24 2017

Wall Time:        1.54 seconds

Total PK formation time     :      0.033u      0.000s      0.014w      1 calls
HF: Form H                  :      0.000u      0.000s      0.003w      1 calls
HF: Form S/X                :      0.000u      0.000s      0.001w      1 calls
HF: Guess                   :      0.083u      0.000s      0.056w      1 calls
SAD Guess                   :      0.083u      0.000s      0.054w      1 calls
HF: Form G                  :      0.000u      0.000s      0.000w      8 calls
JK: D                       :      0.000u      0.000s      0.000w      8 calls
JK: USO2AO                  :      0.000u      0.000s      0.000w      8 calls
JK: JK                      :      0.000u      0.000s      0.000w      8 calls
PK computes JK              :      0.000u      0.000s      0.000w      8 calls
JK: AO2USO                  :      0.000u      0.000s      0.000w      8 calls
HF: Form F                  :      0.000u      0.000s      0.000w      8 calls
HF: DIIS                    :      0.000u      0.000s      0.001w      8 calls
DIISManager::add_entry      :      0.000u      0.000s      0.000w      7 calls
DIISManager::extrapolate    :      0.000u      0.000s      0.000w      6 calls
DIISManager::extrapolate: bMatrix setup:      0.000u      0.000s      0.000w      6 calls
DIISManager::extrapolate: bMatrix pseudoinverse:      0.000u      0.000s      0.000w      6 calls
DIISManager::extrapolate: form new data:      0.000u      0.000s      0.000w      6 calls
HF: Form C                  :      0.000u      0.000s      0.000w      8 calls
HF: Form D                  :      0.000u      0.000s      0.000w      8 calls

-----------------------------------------------------------
Total PK formation time     :      0.033u      0.000s      0.014w      1 calls
HF: Form H                  :      0.000u      0.000s      0.003w      1 calls
HF: Form S/X                :      0.000u      0.000s      0.001w      1 calls
HF: Guess                   :      0.083u      0.000s      0.056w      1 calls
| SAD Guess                 :      0.083u      0.000s      0.054w      1 calls
HF: Form G                  :      0.000u      0.000s      0.000w      8 calls
| JK: D                     :      0.000u      0.000s      0.000w      8 calls
| JK: USO2AO                :      0.000u      0.000s      0.000w      8 calls
| JK: JK                    :      0.000u      0.000s      0.000w      8 calls
| | PK computes JK          :      0.000u      0.000s      0.000w      8 calls
| JK: AO2USO                :      0.000u      0.000s      0.000w      8 calls
HF: Form F                  :      0.000u      0.000s      0.000w      8 calls
HF: DIIS                    :      0.000u      0.000s      0.001w      8 calls
| DIISManager::add_entry    :      0.000u      0.000s      0.000w      7 calls
| DIISManager::extrapolate  :      0.000u      0.000s      0.000w      6 calls
| | DIISManager::extrapolate: bMatrix setup:      0.000u      0.000s      0.000w      6 calls
| | DIISManager::extrapolate: bMatrix pseudoinverse:      0.000u      0.000s      0.000w      6 calls
| | DIISManager::extrapolate: form new data:      0.000u      0.000s      0.000w      6 calls
HF: Form C                  :      0.000u      0.000s      0.000w      8 calls
HF: Form D                  :      0.000u      0.000s      0.000w      8 calls

***********************************************************

Host: Kevins-MacBook-Air-2.local

Timers On : Wed Jul 26 19:48:59 2017
Timers Off: Wed Jul 26 19:49:00 2017

Wall Time:        1.03 seconds

Total PK formation time     :      0.033u      0.000s      0.022w      1 calls
HF: Form H                  :      0.000u      0.000s      0.007w      1 calls
HF: Form S/X                :      0.000u      0.000s      0.000w      1 calls
HF: Guess                   :      0.133u      0.000s      0.083w      1 calls
SAD Guess                   :      0.117u      0.000s      0.078w      1 calls
HF: Form G                  :      0.000u      0.000s      0.001w      8 calls
JK: D                       :      0.000u      0.000s      0.000w      8 calls
JK: USO2AO                  :      0.000u      0.000s      0.000w      8 calls
JK: JK                      :      0.000u      0.000s      0.000w      8 calls
PK computes JK              :      0.000u      0.000s      0.000w      8 calls
JK: AO2USO                  :      0.000u      0.000s      0.000w      8 calls
HF: Form F                  :      0.000u      0.000s      0.000w      8 calls
HF: DIIS                    :      0.000u      0.000s      0.001w      8 calls
DIISManager::add_entry      :      0.000u      0.000s      0.001w      7 calls
DIISManager::extrapolate    :      0.000u      0.000s      0.000w      6 calls
DIISManager::extrapolate: bMatrix setup:      0.000u      0.000s      0.000w      6 calls
DIISManager::extrapolate: bMatrix pseudoinverse:      0.000u      0.000s      0.000w      6 calls
DIISManager::extrapolate: form new data:      0.000u      0.000s      0.000w      6 calls
HF: Form C                  :      0.000u      0.000s      0.000w      8 calls
HF: Form D                  :      0.000u      0.000s      0.000w      8 calls

-----------------------------------------------------------
Total PK formation time     :      0.033u      0.000s      0.022w      1 calls
HF: Form H                  :      0.000u      0.000s      0.007w      1 calls
HF: Form S/X                :      0.000u      0.000s      0.000w      1 calls
HF: Guess                   :      0.133u      0.000s      0.083w      1 calls
| SAD Guess                 :      0.117u      0.000s      0.078w      1 calls
HF: Form G                  :      0.000u      0.000s      0.001w      8 calls
| JK: D                     :      0.000u      0.000s      0.000w      8 calls
| JK: USO2AO                :      0.000u      0.000s      0.000w      8 calls
| JK: JK                    :      0.000u      0.000s      0.000w      8 calls
| | PK computes JK          :      0.000u      0.000s      0.000w      8 calls
| JK: AO2USO                :      0.000u      0.000s      0.000w      8 calls
HF: Form F                  :      0.000u      0.000s      0.000w      8 calls
HF: DIIS                    :      0.000u      0.000s      0.001w      8 calls
| DIISManager::add_entry    :      0.000u      0.000s      0.001w      7 calls
| DIISManager::extrapolate  :      0.000u      0.000s      0.000w      6 calls
| | DIISManager::extrapolate: bMatrix setup:      0.000u      0.000s      0.000w      6 calls
| | DIISManager::extrapolate: bMatrix pseudoinverse:      0.000u      0.000s      0.000w      6 calls
| | DIISManager::extrapolate: form new data:      0.000u      0.000s      0.000w      6 calls
HF: Form C                  :      0.000u      0.000s      0.000w      8 calls
HF: Form D                  :      0.000u      0.000s      0.000w      8 calls

***********************************************************

Host: Kevins-MacBook-Air-2.local

Timers On : Wed Jul 26 19:49:26 2017
Timers Off: Wed Jul 26 19:49:27 2017

Wall Time:        0.71 seconds

Total PK formation time     :      0.017u      0.000s      0.012w      1 calls
HF: Form H                  :      0.000u      0.017s      0.003w      1 calls
HF: Form S/X                :      0.000u      0.000s      0.000w      1 calls
HF: Guess                   :      0.083u      0.000s      0.046w      1 calls
SAD Guess                   :      0.083u      0.000s      0.043w      1 calls
HF: Form G                  :      0.000u      0.000s      0.000w      8 calls
JK: D                       :      0.000u      0.000s      0.000w      8 calls
JK: USO2AO                  :      0.000u      0.000s      0.000w      8 calls
JK: JK                      :      0.000u      0.000s      0.000w      8 calls
PK computes JK              :      0.000u      0.000s      0.000w      8 calls
JK: AO2USO                  :      0.000u      0.000s      0.000w      8 calls
HF: Form F                  :      0.000u      0.000s      0.000w      8 calls
HF: DIIS                    :      0.000u      0.000s      0.001w      8 calls
DIISManager::add_entry      :      0.000u      0.000s      0.000w      7 calls
DIISManager::extrapolate    :      0.000u      0.000s      0.000w      6 calls
DIISManager::extrapolate: bMatrix setup:      0.000u      0.000s      0.000w      6 calls
DIISManager::extrapolate: bMatrix pseudoinverse:      0.000u      0.000s      0.000w      6 calls
DIISManager::extrapolate: form new data:      0.000u      0.000s      0.000w      6 calls
HF: Form C                  :      0.000u      0.000s      0.000w      8 calls
HF: Form D                  :      0.000u      0.000s      0.000w      8 calls

-----------------------------------------------------------
Total PK formation time     :      0.017u      0.000s      0.012w      1 calls
HF: Form H                  :      0.000u      0.017s      0.003w      1 calls
HF: Form S/X                :      0.000u      0.000s      0.000w      1 calls
HF: Guess                   :      0.083u      0.000s      0.046w      1 calls
| SAD Guess                 :      0.083u      0.000s      0.043w      1 calls
HF: Form G                  :      0.000u      0.000s      0.000w      8 calls
| JK: D                     :      0.000u      0.000s      0.000w      8 calls
| JK: USO2AO                :      0.000u      0.000s      0.000w      8 calls
| JK: JK                    :      0.000u      0.000s      0.000w      8 calls
| | PK computes JK          :      0.000u      0.000s      0.000w      8 calls
| JK: AO2USO                :      0.000u      0.000s      0.000w      8 calls
HF: Form F                  :      0.000u      0.000s      0.000w      8 calls
HF: DIIS                    :      0.000u      0.000s      0.001w      8 calls
| DIISManager::add_entry    :      0.000u      0.000s      0.000w      7 calls
| DIISManager::extrapolate  :      0.000u      0.000s      0.000w      6 calls
| | DIISManager::extrapolate: bMatrix setup:      0.000u      0.000s      0.000w      6 calls
| | DIISManager::extrapolate: bMatrix pseudoinverse:      0.000u      0.000s      0.000w      6 calls
| | DIISManager::extrapolate: form new data:      0.000u      0.000s      0.000w      6 calls
HF: Form C                  :      0.000u      0.000s      0.000w      8 calls
HF: Form D                  :      0.000u      0.000s      0.000w      8 calls

***********************************************************

Host: Kevins-MacBook-Air-2.local

Timers On : Wed Jul 26 19:50:33 2017
Timers Off: Wed Jul 26 19:50:34 2017

Wall Time:        1.82 seconds

Total PK formation time     :      0.133u      0.017s      0.105w      1 calls
HF: Form H                  :      0.000u      0.000s      0.003w      1 calls
HF: Form S/X                :      0.000u      0.000s      0.002w      1 calls
HF: Guess                   :      0.117u      0.000s      0.096w      1 calls
SAD Guess                   :      0.117u      0.000s      0.094w      1 calls
HF: Form G                  :      0.017u      0.000s      0.017w      9 calls
JK: D                       :      0.000u      0.000s      0.000w      9 calls
JK: USO2AO                  :      0.000u      0.000s      0.004w      9 calls
JK: JK                      :      0.017u      0.000s      0.012w      9 calls
PK computes JK              :      0.017u      0.000s      0.012w      9 calls
JK: AO2USO                  :      0.000u      0.000s      0.000w      9 calls
HF: Form F                  :      0.000u      0.000s      0.000w      9 calls
HF: DIIS                    :      0.000u      0.017s      0.002w      9 calls
DIISManager::add_entry      :      0.000u      0.017s      0.001w      8 calls
DIISManager::extrapolate    :      0.000u      0.000s      0.001w      7 calls
DIISManager::extrapolate: bMatrix setup:      0.000u      0.000s      0.000w      7 calls
DIISManager::extrapolate: bMatrix pseudoinverse:      0.000u      0.000s      0.000w      7 calls
DIISManager::extrapolate: form new data:      0.000u      0.000s      0.000w      7 calls
HF: Form C                  :      0.000u      0.000s      0.001w      9 calls
HF: Form D                  :      0.000u      0.000s      0.000w      9 calls

-----------------------------------------------------------
Total PK formation time     :      0.133u      0.017s      0.105w      1 calls
HF: Form H                  :      0.000u      0.000s      0.003w      1 calls
HF: Form S/X                :      0.000u      0.000s      0.002w      1 calls
HF: Guess                   :      0.117u      0.000s      0.096w      1 calls
| SAD Guess                 :      0.117u      0.000s      0.094w      1 calls
HF: Form G                  :      0.017u      0.000s      0.017w      9 calls
| JK: D                     :      0.000u      0.000s      0.000w      9 calls
| JK: USO2AO                :      0.000u      0.000s      0.004w      9 calls
| JK: JK                    :      0.017u      0.000s      0.012w      9 calls
| | PK computes JK          :      0.017u      0.000s      0.012w      9 calls
| JK: AO2USO                :      0.000u      0.000s      0.000w      9 calls
HF: Form F                  :      0.000u      0.000s      0.000w      9 calls
HF: DIIS                    :      0.000u      0.017s      0.002w      9 calls
| DIISManager::add_entry    :      0.000u      0.017s      0.001w      8 calls
| DIISManager::extrapolate  :      0.000u      0.000s      0.001w      7 calls
| | DIISManager::extrapolate: bMatrix setup:      0.000u      0.000s      0.000w      7 calls
| | DIISManager::extrapolate: bMatrix pseudoinverse:      0.000u      0.000s      0.000w      7 calls
| | DIISManager::extrapolate: form new data:      0.000u      0.000s      0.000w      7 calls
HF: Form C                  :      0.000u      0.000s      0.001w      9 calls
HF: Form D                  :      0.000u      0.000s      0.000w      9 calls

***********************************************************

Host: Kevins-MacBook-Air-2.local

Timers On : Wed Jul 26 19:50:51 2017
Timers Off: Wed Jul 26 19:50:52 2017

Wall Time:        1.11 seconds

Total PK formation time     :      0.100u      0.000s      0.065w      1 calls
HF: Form H                  :      0.000u      0.000s      0.003w      1 calls
HF: Form S/X                :      0.000u      0.000s      0.000w      1 calls
HF: Guess                   :      0.100u      0.000s      0.064w      1 calls
SAD Guess                   :      0.100u      0.000s      0.062w      1 calls
HF: Form G                  :      0.033u      0.000s      0.011w      9 calls
JK: D                       :      0.000u      0.000s      0.000w      9 calls
JK: USO2AO                  :      0.000u      0.000s      0.000w      9 calls
JK: JK                      :      0.033u      0.000s      0.011w      9 calls
PK computes JK              :      0.033u      0.000s      0.011w      9 calls
JK: AO2USO                  :      0.000u      0.000s      0.000w      9 calls
HF: Form F                  :      0.000u      0.000s      0.000w      9 calls
HF: DIIS                    :      0.000u      0.000s      0.002w      9 calls
DIISManager::add_entry      :      0.000u      0.000s      0.001w      8 calls
DIISManager::extrapolate    :      0.000u      0.000s      0.001w      7 calls
DIISManager::extrapolate: bMatrix setup:      0.000u      0.000s      0.000w      7 calls
DIISManager::extrapolate: bMatrix pseudoinverse:      0.000u      0.000s      0.000w      7 calls
DIISManager::extrapolate: form new data:      0.000u      0.000s      0.000w      7 calls
HF: Form C                  :      0.000u      0.000s      0.001w      9 calls
HF: Form D                  :      0.000u      0.000s      0.000w      9 calls

-----------------------------------------------------------
Total PK formation time     :      0.100u      0.000s      0.065w      1 calls
HF: Form H                  :      0.000u      0.000s      0.003w      1 calls
HF: Form S/X                :      0.000u      0.000s      0.000w      1 calls
HF: Guess                   :      0.100u      0.000s      0.064w      1 calls
| SAD Guess                 :      0.100u      0.000s      0.062w      1 calls
HF: Form G                  :      0.033u      0.000s      0.011w      9 calls
| JK: D                     :      0.000u      0.000s      0.000w      9 calls
| JK: USO2AO                :      0.000u      0.000s      0.000w      9 calls
| JK: JK                    :      0.033u      0.000s      0.011w      9 calls
| | PK computes JK          :      0.033u      0.000s      0.011w      9 calls
| JK: AO2USO                :      0.000u      0.000s      0.000w      9 calls
HF: Form F                  :      0.000u      0.000s      0.000w      9 calls
HF: DIIS                    :      0.000u      0.000s      0.002w      9 calls
| DIISManager::add_entry    :      0.000u      0.000s      0.001w      8 calls
| DIISManager::extrapolate  :      0.000u      0.000s      0.001w      7 calls
| | DIISManager::extrapolate: bMatrix setup:      0.000u      0.000s      0.000w      7 calls
| | DIISManager::extrapolate: bMatrix pseudoinverse:      0.000u      0.000s      0.000w      7 calls
| | DIISManager::extrapolate: form new data:      0.000u      0.000s      0.000w      7 calls
HF: Form C                  :      0.000u      0.000s      0.001w      9 calls
HF: Form D                  :      0.000u      0.000s      0.000w      9 calls

***********************************************************

Host: Kevins-MacBook-Air-2.local

Timers On : Wed Jul 26 19:51:11 2017
Timers Off: Wed Jul 26 19:51:12 2017

Wall Time:        0.72 seconds

Total PK formation time     :      0.017u      0.000s      0.014w      1 calls
HF: Form H                  :      0.000u      0.000s      0.001w      1 calls
HF: Form S/X                :      0.000u      0.000s      0.000w      1 calls
HF: Guess                   :      0.083u      0.000s      0.046w      1 calls
SAD Guess                   :      0.067u      0.000s      0.044w      1 calls
HF: Form G                  :      0.000u      0.000s      0.003w      8 calls
JK: D                       :      0.000u      0.000s      0.000w      8 calls
JK: USO2AO                  :      0.000u      0.000s      0.002w      8 calls
JK: JK                      :      0.000u      0.000s      0.000w      8 calls
PK computes JK              :      0.000u      0.000s      0.000w      8 calls
JK: AO2USO                  :      0.000u      0.000s      0.000w      8 calls
HF: Form F                  :      0.000u      0.000s      0.000w      8 calls
HF: DIIS                    :      0.000u      0.000s      0.001w      8 calls
DIISManager::add_entry      :      0.000u      0.000s      0.001w      7 calls
DIISManager::extrapolate    :      0.000u      0.000s      0.001w      6 calls
DIISManager::extrapolate: bMatrix setup:      0.000u      0.000s      0.000w      6 calls
DIISManager::extrapolate: bMatrix pseudoinverse:      0.000u      0.000s      0.000w      6 calls
DIISManager::extrapolate: form new data:      0.000u      0.000s      0.000w      6 calls
HF: Form C                  :      0.000u      0.000s      0.000w      8 calls
HF: Form D                  :      0.000u      0.000s      0.000w      8 calls

-----------------------------------------------------------
Total PK formation time     :      0.017u      0.000s      0.014w      1 calls
HF: Form H                  :      0.000u      0.000s      0.001w      1 calls
HF: Form S/X                :      0.000u      0.000s      0.000w      1 calls
HF: Guess                   :      0.083u      0.000s      0.046w      1 calls
| SAD Guess                 :      0.067u      0.000s      0.044w      1 calls
HF: Form G                  :      0.000u      0.000s      0.003w      8 calls
| JK: D                     :      0.000u      0.000s      0.000w      8 calls
| JK: USO2AO                :      0.000u      0.000s      0.002w      8 calls
| JK: JK                    :      0.000u      0.000s      0.000w      8 calls
| | PK computes JK          :      0.000u      0.000s      0.000w      8 calls
| JK: AO2USO                :      0.000u      0.000s      0.000w      8 calls
HF: Form F                  :      0.000u      0.000s      0.000w      8 calls
HF: DIIS                    :      0.000u      0.000s      0.001w      8 calls
| DIISManager::add_entry    :      0.000u      0.000s      0.001w      7 calls
| DIISManager::extrapolate  :      0.000u      0.000s      0.001w      6 calls
| | DIISManager::extrapolate: bMatrix setup:      0.000u      0.000s      0.000w      6 calls
| | DIISManager::extrapolate: bMatrix pseudoinverse:      0.000u      0.000s      0.000w      6 calls
| | DIISManager::extrapolate: form new data:      0.000u      0.000s      0.000w      6 calls
HF: Form C                  :      0.000u      0.000s      0.000w      8 calls
HF: Form D                  :      0.000u      0.000s      0.000w      8 calls

***********************************************************

Host: Kevins-MacBook-Air-2.local

Timers On : Wed Jul 26 19:55:34 2017
Timers Off: Wed Jul 26 19:55:36 2017

Wall Time:        1.66 seconds

Total PK formation time     :      0.033u      0.000s      0.018w      1 calls
HF: Form H                  :      0.000u      0.000s      0.006w      1 calls
HF: Form S/X                :      0.000u      0.000s      0.002w      1 calls
HF: Guess                   :      0.100u      0.017s      0.127w      1 calls
SAD Guess                   :      0.100u      0.017s      0.121w      1 calls
HF: Form G                  :      0.000u      0.000s      0.004w      8 calls
JK: D                       :      0.000u      0.000s      0.000w      8 calls
JK: USO2AO                  :      0.000u      0.000s      0.000w      8 calls
JK: JK                      :      0.000u      0.000s      0.002w      8 calls
PK computes JK              :      0.000u      0.000s      0.002w      8 calls
JK: AO2USO                  :      0.000u      0.000s      0.000w      8 calls
HF: Form F                  :      0.000u      0.000s      0.000w      8 calls
HF: DIIS                    :      0.000u      0.000s      0.001w      8 calls
DIISManager::add_entry      :      0.000u      0.000s      0.001w      7 calls
DIISManager::extrapolate    :      0.000u      0.000s      0.000w      6 calls
DIISManager::extrapolate: bMatrix setup:      0.000u      0.000s      0.000w      6 calls
DIISManager::extrapolate: bMatrix pseudoinverse:      0.000u      0.000s      0.000w      6 calls
DIISManager::extrapolate: form new data:      0.000u      0.000s      0.000w      6 calls
HF: Form C                  :      0.000u      0.000s      0.000w      8 calls
HF: Form D                  :      0.000u      0.000s      0.000w      8 calls

-----------------------------------------------------------
Total PK formation time     :      0.033u      0.000s      0.018w      1 calls
HF: Form H                  :      0.000u      0.000s      0.006w      1 calls
HF: Form S/X                :      0.000u      0.000s      0.002w      1 calls
HF: Guess                   :      0.100u      0.017s      0.127w      1 calls
| SAD Guess                 :      0.100u      0.017s      0.121w      1 calls
HF: Form G                  :      0.000u      0.000s      0.004w      8 calls
| JK: D                     :      0.000u      0.000s      0.000w      8 calls
| JK: USO2AO                :      0.000u      0.000s      0.000w      8 calls
| JK: JK                    :      0.000u      0.000s      0.002w      8 calls
| | PK computes JK          :      0.000u      0.000s      0.002w      8 calls
| JK: AO2USO                :      0.000u      0.000s      0.000w      8 calls
HF: Form F                  :      0.000u      0.000s      0.000w      8 calls
HF: DIIS                    :      0.000u      0.000s      0.001w      8 calls
| DIISManager::add_entry    :      0.000u      0.000s      0.001w      7 calls
| DIISManager::extrapolate  :      0.000u      0.000s      0.000w      6 calls
| | DIISManager::extrapolate: bMatrix setup:      0.000u      0.000s      0.000w      6 calls
| | DIISManager::extrapolate: bMatrix pseudoinverse:      0.000u      0.000s      0.000w      6 calls
| | DIISManager::extrapolate: form new data:      0.000u      0.000s      0.000w      6 calls
HF: Form C                  :      0.000u      0.000s      0.000w      8 calls
HF: Form D                  :      0.000u      0.000s      0.000w      8 calls

***********************************************************

Host: Kevins-MacBook-Air-2.local

Timers On : Wed Jul 26 20:02:04 2017
Timers Off: Wed Jul 26 20:02:05 2017

Wall Time:        0.82 seconds


-----------------------------------------------------------

***********************************************************

Host: Kevins-MacBook-Air-2.local

Timers On : Wed Jul 26 20:03:05 2017
Timers Off: Wed Jul 26 20:03:07 2017

Wall Time:        2.10 seconds

Total PK formation time     :      0.017u      0.017s      0.023w      1 calls
HF: Form H                  :      0.017u      0.000s      0.006w      1 calls
HF: Form S/X                :      0.000u      0.000s      0.004w      1 calls
HF: Guess                   :      0.100u      0.000s      0.104w      1 calls
SAD Guess                   :      0.100u      0.000s      0.099w      1 calls
HF: Form G                  :      0.000u      0.000s      0.003w      8 calls
JK: D                       :      0.000u      0.000s      0.000w      8 calls
JK: USO2AO                  :      0.000u      0.000s      0.000w      8 calls
JK: JK                      :      0.000u      0.000s      0.002w      8 calls
PK computes JK              :      0.000u      0.000s      0.002w      8 calls
JK: AO2USO                  :      0.000u      0.000s      0.000w      8 calls
HF: Form F                  :      0.000u      0.000s      0.000w      8 calls
HF: DIIS                    :      0.000u      0.000s      0.001w      8 calls
DIISManager::add_entry      :      0.000u      0.000s      0.001w      7 calls
DIISManager::extrapolate    :      0.000u      0.000s      0.000w      6 calls
DIISManager::extrapolate: bMatrix setup:      0.000u      0.000s      0.000w      6 calls
DIISManager::extrapolate: bMatrix pseudoinverse:      0.000u      0.000s      0.000w      6 calls
DIISManager::extrapolate: form new data:      0.000u      0.000s      0.000w      6 calls
HF: Form C                  :      0.000u      0.000s      0.000w      8 calls
HF: Form D                  :      0.000u      0.000s      0.000w      8 calls

-----------------------------------------------------------
Total PK formation time     :      0.017u      0.017s      0.023w      1 calls
HF: Form H                  :      0.017u      0.000s      0.006w      1 calls
HF: Form S/X                :      0.000u      0.000s      0.004w      1 calls
HF: Guess                   :      0.100u      0.000s      0.104w      1 calls
| SAD Guess                 :      0.100u      0.000s      0.099w      1 calls
HF: Form G                  :      0.000u      0.000s      0.003w      8 calls
| JK: D                     :      0.000u      0.000s      0.000w      8 calls
| JK: USO2AO                :      0.000u      0.000s      0.000w      8 calls
| JK: JK                    :      0.000u      0.000s      0.002w      8 calls
| | PK computes JK          :      0.000u      0.000s      0.002w      8 calls
| JK: AO2USO                :      0.000u      0.000s      0.000w      8 calls
HF: Form F                  :      0.000u      0.000s      0.000w      8 calls
HF: DIIS                    :      0.000u      0.000s      0.001w      8 calls
| DIISManager::add_entry    :      0.000u      0.000s      0.001w      7 calls
| DIISManager::extrapolate  :      0.000u      0.000s      0.000w      6 calls
| | DIISManager::extrapolate: bMatrix setup:      0.000u      0.000s      0.000w      6 calls
| | DIISManager::extrapolate: bMatrix pseudoinverse:      0.000u      0.000s      0.000w      6 calls
| | DIISManager::extrapolate: form new data:      0.000u      0.000s      0.000w      6 calls
HF: Form C                  :      0.000u      0.000s      0.000w      8 calls
HF: Form D                  :      0.000u      0.000s      0.000w      8 calls

***********************************************************

Host: Kevins-MacBook-Air-2.local

Timers On : Wed Jul 26 20:03:52 2017
Timers Off: Wed Jul 26 20:03:53 2017

Wall Time:        1.21 seconds


-----------------------------------------------------------

***********************************************************

Host: Kevins-MacBook-Air-2.local

Timers On : Wed Jul 26 20:04:13 2017
Timers Off: Wed Jul 26 20:04:14 2017

Wall Time:        1.23 seconds

Total PK formation time     :      0.033u      0.000s      0.016w      1 calls
HF: Form H                  :      0.000u      0.000s      0.003w      1 calls
HF: Form S/X                :      0.000u      0.000s      0.001w      1 calls
HF: Guess                   :      0.100u      0.017s      0.093w      1 calls
SAD Guess                   :      0.100u      0.017s      0.091w      1 calls
HF: Form G                  :      0.000u      0.000s      0.001w      8 calls
JK: D                       :      0.000u      0.000s      0.000w      8 calls
JK: USO2AO                  :      0.000u      0.000s      0.000w      8 calls
JK: JK                      :      0.000u      0.000s      0.000w      8 calls
PK computes JK              :      0.000u      0.000s      0.000w      8 calls
JK: AO2USO                  :      0.000u      0.000s      0.000w      8 calls
HF: Form F                  :      0.000u      0.000s      0.000w      8 calls
HF: DIIS                    :      0.000u      0.000s      0.001w      8 calls
DIISManager::add_entry      :      0.000u      0.000s      0.000w      7 calls
DIISManager::extrapolate    :      0.000u      0.000s      0.001w      6 calls
DIISManager::extrapolate: bMatrix setup:      0.000u      0.000s      0.000w      6 calls
DIISManager::extrapolate: bMatrix pseudoinverse:      0.000u      0.000s      0.000w      6 calls
DIISManager::extrapolate: form new data:      0.000u      0.000s      0.000w      6 calls
HF: Form C                  :      0.000u      0.000s      0.000w      8 calls
HF: Form D                  :      0.000u      0.000s      0.000w      8 calls

-----------------------------------------------------------
Total PK formation time     :      0.033u      0.000s      0.016w      1 calls
HF: Form H                  :      0.000u      0.000s      0.003w      1 calls
HF: Form S/X                :      0.000u      0.000s      0.001w      1 calls
HF: Guess                   :      0.100u      0.017s      0.093w      1 calls
| SAD Guess                 :      0.100u      0.017s      0.091w      1 calls
HF: Form G                  :      0.000u      0.000s      0.001w      8 calls
| JK: D                     :      0.000u      0.000s      0.000w      8 calls
| JK: USO2AO                :      0.000u      0.000s      0.000w      8 calls
| JK: JK                    :      0.000u      0.000s      0.000w      8 calls
| | PK computes JK          :      0.000u      0.000s      0.000w      8 calls
| JK: AO2USO                :      0.000u      0.000s      0.000w      8 calls
HF: Form F                  :      0.000u      0.000s      0.000w      8 calls
HF: DIIS                    :      0.000u      0.000s      0.001w      8 calls
| DIISManager::add_entry    :      0.000u      0.000s      0.000w      7 calls
| DIISManager::extrapolate  :      0.000u      0.000s      0.001w      6 calls
| | DIISManager::extrapolate: bMatrix setup:      0.000u      0.000s      0.000w      6 calls
| | DIISManager::extrapolate: bMatrix pseudoinverse:      0.000u      0.000s      0.000w      6 calls
| | DIISManager::extrapolate: form new data:      0.000u      0.000s      0.000w      6 calls
HF: Form C                  :      0.000u      0.000s      0.000w      8 calls
HF: Form D                  :      0.000u      0.000s      0.000w      8 calls

***********************************************************

Host: Kevins-MacBook-Air-2.local

Timers On : Wed Jul 26 20:26:34 2017
Timers Off: Wed Jul 26 20:26:35 2017

Wall Time:        1.05 seconds


-----------------------------------------------------------

***********************************************************

Host: Kevins-MacBook-Air-2.local

Timers On : Wed Jul 26 20:29:51 2017
Timers Off: Wed Jul 26 20:44:39 2017

Wall Time:      887.33 seconds

Total PK formation time     :      0.033u      0.000s      0.027w      1 calls
HF: Form H                  :      0.000u      0.000s      0.001w      1 calls
HF: Form S/X                :      0.000u      0.017s      0.001w      1 calls
HF: Guess                   :      0.100u      0.000s      0.099w      1 calls
SAD Guess                   :      0.100u      0.000s      0.096w      1 calls
HF: Form G                  :      0.000u      0.000s      0.004w      8 calls
JK: D                       :      0.000u      0.000s      0.000w      8 calls
JK: USO2AO                  :      0.000u      0.000s      0.003w      8 calls
JK: JK                      :      0.000u      0.000s      0.000w      8 calls
PK computes JK              :      0.000u      0.000s      0.000w      8 calls
JK: AO2USO                  :      0.000u      0.000s      0.000w      8 calls
HF: Form F                  :      0.000u      0.000s      0.000w      8 calls
HF: DIIS                    :      0.000u      0.000s      0.001w      8 calls
DIISManager::add_entry      :      0.000u      0.000s      0.000w      7 calls
DIISManager::extrapolate    :      0.000u      0.000s      0.000w      6 calls
DIISManager::extrapolate: bMatrix setup:      0.000u      0.000s      0.000w      6 calls
DIISManager::extrapolate: bMatrix pseudoinverse:      0.000u      0.000s      0.000w      6 calls
DIISManager::extrapolate: form new data:      0.000u      0.000s      0.000w      6 calls
HF: Form C                  :      0.000u      0.000s      0.001w      8 calls
HF: Form D                  :      0.000u      0.000s      0.000w      8 calls

-----------------------------------------------------------
Total PK formation time     :      0.033u      0.000s      0.027w      1 calls
HF: Form H                  :      0.000u      0.000s      0.001w      1 calls
HF: Form S/X                :      0.000u      0.017s      0.001w      1 calls
HF: Guess                   :      0.100u      0.000s      0.099w      1 calls
| SAD Guess                 :      0.100u      0.000s      0.096w      1 calls
HF: Form G                  :      0.000u      0.000s      0.004w      8 calls
| JK: D                     :      0.000u      0.000s      0.000w      8 calls
| JK: USO2AO                :      0.000u      0.000s      0.003w      8 calls
| JK: JK                    :      0.000u      0.000s      0.000w      8 calls
| | PK computes JK          :      0.000u      0.000s      0.000w      8 calls
| JK: AO2USO                :      0.000u      0.000s      0.000w      8 calls
HF: Form F                  :      0.000u      0.000s      0.000w      8 calls
HF: DIIS                    :      0.000u      0.000s      0.001w      8 calls
| DIISManager::add_entry    :      0.000u      0.000s      0.000w      7 calls
| DIISManager::extrapolate  :      0.000u      0.000s      0.000w      6 calls
| | DIISManager::extrapolate: bMatrix setup:      0.000u      0.000s      0.000w      6 calls
| | DIISManager::extrapolate: bMatrix pseudoinverse:      0.000u      0.000s      0.000w      6 calls
| | DIISManager::extrapolate: form new data:      0.000u      0.000s      0.000w      6 calls
HF: Form C                  :      0.000u      0.000s      0.001w      8 calls
HF: Form D                  :      0.000u      0.000s      0.000w      8 calls

***********************************************************
